##File Type: Far Field
##File Format: 8
##Source: TX Combined 0deg Spherical FieldsGain_ETotal_ETheta_EPhi
** File exported by MATLAB script

#Configuration Name: StandardConfiguration1
#Request Name: FarField1
#Frequency: 5.800000e+09
#Coordinate System: Spherical
#Result Type: EField
#Radius: 1.0
#No. of Header Lines: 1
#    "Theta"    "Phi"    "Re(Etheta)"    "Im(Etheta)" "Re(Ephi)"    "Im(Ephi)"
  180.00     0.00 -4.835660e-02 +1.877978e-03 -1.287893e-02 +1.682298e-03
  181.00     0.00 -4.341728e-02 -6.404151e-04 -7.635835e-03 -2.356844e-03
  182.00     0.00 -3.830774e-02 -4.449810e-03 -2.433459e-03 -6.115708e-03
  183.00     0.00 -3.309832e-02 -9.377249e-03 +2.635488e-03 -9.477827e-03
  184.00     0.00 -2.784466e-02 -1.520476e-02 +7.483146e-03 -1.233664e-02
  185.00     0.00 -2.258819e-02 -2.167678e-02 +1.202917e-02 -1.459934e-02
  186.00     0.00 -1.735732e-02 -2.850898e-02 +1.620312e-02 -1.619040e-02
  187.00     0.00 -1.216950e-02 -3.539818e-02 +1.994639e-02 -1.705457e-02
  188.00     0.00 -7.033751e-03 -4.203305e-02 +2.321385e-02 -1.715929e-02
  189.00     0.00 -1.953734e-03 -4.810520e-02 +2.597479e-02 -1.649639e-02
  190.00     0.00 +3.068985e-03 -5.332029e-02 +2.821348e-02 -1.508298e-02
  191.00     0.00 +8.031594e-03 -5.740873e-02 +2.992913e-02 -1.296148e-02
  192.00     0.00 +1.292683e-02 -6.013564e-02 +3.113535e-02 -1.019880e-02
  193.00     0.00 +1.774011e-02 -6.130974e-02 +3.185905e-02 -6.884665e-03
  194.00     0.00 +2.244713e-02 -6.079076e-02 +3.213904e-02 -3.129063e-03
  195.00     0.00 +2.701217e-02 -5.849519e-02 +3.202409e-02 +9.409594e-04
  196.00     0.00 +3.138709e-02 -5.440010e-02 +3.157084e-02 +5.185213e-03
  197.00     0.00 +3.551124e-02 -4.854497e-02 +3.084149e-02 +9.454767e-03
  198.00     0.00 +3.931223e-02 -4.103135e-02 +2.990133e-02 +1.359670e-02
  199.00     0.00 +4.270759e-02 -3.202046e-02 +2.881637e-02 +1.745908e-02
  200.00     0.00 +4.560727e-02 -2.172870e-02 +2.765102e-02 +2.089592e-02
  201.00     0.00 +4.791691e-02 -1.042128e-02 +2.646596e-02 +2.377197e-02
  202.00     0.00 +4.954172e-02 +1.595769e-03 +2.531629e-02 +2.596725e-02
  203.00     0.00 +5.039088e-02 +1.398507e-02 +2.425006e-02 +2.738101e-02
  204.00     0.00 +5.038214e-02 +2.638840e-02 +2.330708e-02 +2.793505e-02
  205.00     0.00 +4.944659e-02 +3.843799e-02 +2.251821e-02 +2.757634e-02
  206.00     0.00 +4.753326e-02 +4.976808e-02 +2.190511e-02 +2.627867e-02
  207.00     0.00 +4.461331e-02 +6.002652e-02 +2.148027e-02 +2.404353e-02
  208.00     0.00 +4.068377e-02 +6.888586e-02 +2.124753e-02 +2.089986e-02
  209.00     0.00 +3.577039e-02 +7.605374e-02 +2.120295e-02 +1.690298e-02
  210.00     0.00 +2.992968e-02 +8.128198e-02 +2.133586e-02 +1.213260e-02
  211.00     0.00 +2.324982e-02 +8.437439e-02 +2.163022e-02 +6.689954e-03
  212.00     0.00 +1.585043e-02 +8.519277e-02 +2.206607e-02 +6.942381e-04
  213.00     0.00 +7.881174e-03 +8.366104e-02 +2.262105e-02 -5.721506e-03
  214.00     0.00 -4.809095e-04 +7.976744e-02 +2.327190e-02 -1.241497e-02
  215.00     0.00 -9.035158e-03 +7.356461e-02 +2.399584e-02 -1.923942e-02
  216.00     0.00 -1.756215e-02 +6.516763e-02 +2.477181e-02 -2.604856e-02
  217.00     0.00 -2.582947e-02 +5.475021e-02 +2.558146e-02 -3.270135e-02
  218.00     0.00 -3.359824e-02 +4.253898e-02 +2.640986e-02 -3.906652e-02
  219.00     0.00 -4.063011e-02 +2.880630e-02 +2.724597e-02 -4.502661e-02
  220.00     0.00 -4.669467e-02 +1.386178e-02 +2.808270e-02 -5.048144e-02
  221.00     0.00 -5.157673e-02 -1.957230e-03 +2.891673e-02 -5.535086e-02
  222.00     0.00 -5.508352e-02 -1.829577e-02 +2.974803e-02 -5.957670e-02
  223.00     0.00 -5.705126e-02 -3.479170e-02 +3.057912e-02 -6.312383e-02
  224.00     0.00 -5.735112e-02 -5.108603e-02 +3.141411e-02 -6.598036e-02
  225.00     0.00 -5.589411e-02 -6.683290e-02 +3.225762e-02 -6.815694e-02
  226.00     0.00 -5.263490e-02 -8.170873e-02 +3.311362e-02 -6.968525e-02
  227.00     0.00 -4.757422e-02 -9.542045e-02 +3.398427e-02 -7.061571e-02
  228.00     0.00 -4.075994e-02 -1.077123e-01 +3.486883e-02 -7.101458e-02
  229.00     0.00 -3.228662e-02 -1.183715e-01 +3.576271e-02 -7.096054e-02
  230.00     0.00 -2.229362e-02 -1.272316e-01 +3.665673e-02 -7.054088e-02
  231.00     0.00 -1.096170e-02 -1.341751e-01 +3.753663e-02 -6.984755e-02
  232.00     0.00 +1.491647e-03 -1.391336e-01 +3.838295e-02 -6.897317e-02
  233.00     0.00 +1.481805e-02 -1.420867e-01 +3.917109e-02 -6.800716e-02
  234.00     0.00 +2.874514e-02 -1.430592e-01 +3.987189e-02 -6.703221e-02
  235.00     0.00 +4.298418e-02 -1.421172e-01 +4.045239e-02 -6.612116e-02
  236.00     0.00 +5.723817e-02 -1.393626e-01 +4.087702e-02 -6.533448e-02
  237.00     0.00 +7.121024e-02 -1.349273e-01 +4.110890e-02 -6.471841e-02
  238.00     0.00 +8.461195e-02 -1.289662e-01 +4.111152e-02 -6.430381e-02
  239.00     0.00 +9.717129e-02 -1.216503e-01 +4.085043e-02 -6.410580e-02
  240.00     0.00 +1.086400e-01 -1.131598e-01 +4.029506e-02 -6.412412e-02
  241.00     0.00 +1.188003e-01 -1.036765e-01 +3.942046e-02 -6.434422e-02
  242.00     0.00 +1.274701e-01 -9.337870e-02 +3.820901e-02 -6.473906e-02
  243.00     0.00 +1.345075e-01 -8.243454e-02 +3.665181e-02 -6.527139e-02
  244.00     0.00 +1.398135e-01 -7.099809e-02 +3.474994e-02 -6.589649e-02
  245.00     0.00 +1.433338e-01 -5.920566e-02 +3.251529e-02 -6.656523e-02
  246.00     0.00 +1.450583e-01 -4.717354e-02 +2.997097e-02 -6.722721e-02
  247.00     0.00 +1.450202e-01 -3.499698e-02 +2.715140e-02 -6.783398e-02
  248.00     0.00 +1.432928e-01 -2.275050e-02 +2.410179e-02 -6.834197e-02
  249.00     0.00 +1.399858e-01 -1.048922e-02 +2.087727e-02 -6.871518e-02
  250.00     0.00 +1.352399e-01 +1.748623e-03 +1.754152e-02 -6.892735e-02
  251.00     0.00 +1.292212e-01 +1.393833e-02 +1.416504e-02 -6.896363e-02
  252.00     0.00 +1.221145e-01 +2.606461e-02 +1.082302e-02 -6.882154e-02
  253.00     0.00 +1.141162e-01 +3.811711e-02 +7.592973e-03 -6.851121e-02
  254.00     0.00 +1.054276e-01 +5.008553e-02 +4.552137e-03 -6.805495e-02
  255.00     0.00 +9.624789e-02 +6.195494e-02 +1.774854e-03 -6.748602e-02
  256.00     0.00 +8.676740e-02 +7.370129e-02 -6.701068e-04 -6.684679e-02
  257.00     0.00 +7.716206e-02 +8.528739e-02 -2.722068e-03 -6.618630e-02
  258.00     0.00 +6.758821e-02 +9.665972e-02 -4.330755e-03 -6.555728e-02
  259.00     0.00 +5.817858e-02 +1.077461e-01 -5.458286e-03 -6.501289e-02
  260.00     0.00 +4.903933e-02 +1.184542e-01 -6.080752e-03 -6.460322e-02
  261.00     0.00 +4.024837e-02 +1.286720e-01 -6.189332e-03 -6.437178e-02
  262.00     0.00 +3.185478e-02 +1.382679e-01 -5.790868e-03 -6.435210e-02
  263.00     0.00 +2.387958e-02 +1.470937e-01 -4.907883e-03 -6.456470e-02
  264.00     0.00 +1.631760e-02 +1.549878e-01 -3.578034e-03 -6.501443e-02
  265.00     0.00 +9.140352e-03 +1.617793e-01 -1.852995e-03 -6.568853e-02
  266.00     0.00 +2.299879e-03 +1.672934e-01 +2.031753e-04 -6.655534e-02
  267.00     0.00 -4.266664e-03 +1.713571e-01 +2.516138e-03 -6.756385e-02
  268.00     0.00 -1.063193e-02 +1.738056e-01 +5.003764e-03 -6.864415e-02
  269.00     0.00 -1.687293e-02 +1.744889e-01 +7.578930e-03 -6.970874e-02
  270.00     0.00 -2.306555e-02 +1.732776e-01 +1.015250e-02 -7.065474e-02
  271.00     0.00 -2.927909e-02 +1.700697e-01 +1.263639e-02 -7.136691e-02
  272.00     0.00 -3.557124e-02 +1.647952e-01 +1.494658e-02 -7.172141e-02
  273.00     0.00 -4.198349e-02 +1.574213e-01 +1.700600e-02 -7.159013e-02
  274.00     0.00 -4.853734e-02 +1.479555e-01 +1.874712e-02 -7.084551e-02
  275.00     0.00 -5.523124e-02 +1.364481e-01 +2.011417e-02 -6.936557e-02
  276.00     0.00 -6.203858e-02 +1.229929e-01 +2.106493e-02 -6.703905e-02
  277.00     0.00 -6.890663e-02 +1.077271e-01 +2.157195e-02 -6.377039e-02
  278.00     0.00 -7.575656e-02 +9.082886e-02 +2.162324e-02 -5.948441e-02
  279.00     0.00 -8.248446e-02 +7.251455e-02 +2.122234e-02 -5.413043e-02
  280.00     0.00 -8.896337e-02 +5.303360e-02 +2.038779e-02 -4.768564e-02
  281.00     0.00 -9.504619e-02 +3.266290e-02 +1.915201e-02 -4.015770e-02
  282.00     0.00 -1.005694e-01 +1.169995e-02 +1.755971e-02 -3.158625e-02
  283.00     0.00 -1.053574e-01 -9.544812e-03 +1.566575e-02 -2.204340e-02
  284.00     0.00 -1.092273e-01 -3.075608e-02 +1.353270e-02 -1.163307e-02
  285.00     0.00 -1.119942e-01 -5.162209e-02 +1.122811e-02 -4.891584e-04
  286.00     0.00 -1.134762e-01 -7.184293e-02 +8.821563e-03 +1.122733e-02
  287.00     0.00 -1.134998e-01 -9.113857e-02 +6.381808e-03 +2.333221e-02
  288.00     0.00 -1.119050e-01 -1.092562e-01 +3.973857e-03 +3.562298e-02
  289.00     0.00 -1.085496e-01 -1.259769e-01 +1.656355e-03 +4.788435e-02
  290.00     0.00 -1.033136e-01 -1.411209e-01 -5.207723e-04 +5.989440e-02
  291.00     0.00 -9.610271e-02 -1.545518e-01 -2.518253e-03 +7.143110e-02
  292.00     0.00 -8.685113e-02 -1.661793e-01 -4.308928e-03 +8.227885e-02
  293.00     0.00 -7.552357e-02 -1.759608e-01 -5.878660e-03 +9.223507e-02
  294.00     0.00 -6.211665e-02 -1.839005e-01 -7.226673e-03 +1.011163e-01
  295.00     0.00 -4.665944e-02 -1.900478e-01 -8.365287e-03 +1.087639e-01
  296.00     0.00 -2.921331e-02 -1.944945e-01 -9.319090e-03 +1.150488e-01
  297.00     0.00 -9.871074e-03 -1.973695e-01 -1.012356e-02 +1.198755e-01
  298.00     0.00 +1.124438e-02 -1.988335e-01 -1.082319e-02 +1.231848e-01
  299.00     0.00 +3.398196e-02 -1.990723e-01 -1.146924e-02 +1.249556e-01
  300.00     0.00 +5.816466e-02 -1.982894e-01 -1.211718e-02 +1.252052e-01
  301.00     0.00 +8.359203e-02 -1.966982e-01 -1.282388e-02 +1.239885e-01
  302.00     0.00 +1.100428e-01 -1.945142e-01 -1.364479e-02 +1.213959e-01
  303.00     0.00 +1.372778e-01 -1.919472e-01 -1.463110e-02 +1.175500e-01
  304.00     0.00 +1.650420e-01 -1.891941e-01 -1.582713e-02 +1.126014e-01
  305.00     0.00 +1.930676e-01 -1.864321e-01 -1.726788e-02 +1.067237e-01
  306.00     0.00 +2.210759e-01 -1.838129e-01 -1.897710e-02 +1.001073e-01
  307.00     0.00 +2.487796e-01 -1.814583e-01 -2.096563e-02 +9.295331e-02
  308.00     0.00 +2.758840e-01 -1.794567e-01 -2.323045e-02 +8.546684e-02
  309.00     0.00 +3.020888e-01 -1.778608e-01 -2.575418e-02 +7.785039e-02
  310.00     0.00 +3.270893e-01 -1.766873e-01 -2.850520e-02 +7.029738e-02
  311.00     0.00 +3.505769e-01 -1.759173e-01 -3.143839e-02 +6.298619e-02
  312.00     0.00 +3.722404e-01 -1.754984e-01 -3.449639e-02 +5.607471e-02
  313.00     0.00 +3.917664e-01 -1.753477e-01 -3.761140e-02 +4.969583e-02
  314.00     0.00 +4.088399e-01 -1.753564e-01 -4.070738e-02 +4.395380e-02
  315.00     0.00 +4.231453e-01 -1.753947e-01 -4.370269e-02 +3.892174e-02
  316.00     0.00 +4.343673e-01 -1.753175e-01 -4.651292e-02 +3.464017e-02
  317.00     0.00 +4.421921e-01 -1.749704e-01 -4.905383e-02 +3.111691e-02
  318.00     0.00 +4.463090e-01 -1.741962e-01 -5.124438e-02 +2.832790e-02
  319.00     0.00 +4.464125e-01 -1.728408e-01 -5.300965e-02 +2.621934e-02
  320.00     0.00 +4.422046e-01 -1.707588e-01 -5.428350e-02 +2.471067e-02
  321.00     0.00 +4.333982e-01 -1.678189e-01 -5.501098e-02 +2.369851e-02
  322.00     0.00 +4.197198e-01 -1.639079e-01 -5.515027e-02 +2.306130e-02
  323.00     0.00 +4.009145e-01 -1.589340e-01 -5.467420e-02 +2.266442e-02
  324.00     0.00 +3.767493e-01 -1.528289e-01 -5.357117e-02 +2.236568e-02
  325.00     0.00 +3.470189e-01 -1.455488e-01 -5.184554e-02 +2.202097e-02
  326.00     0.00 +3.115501e-01 -1.370743e-01 -4.951742e-02 +2.148971e-02
  327.00     0.00 +2.702072e-01 -1.274086e-01 -4.662190e-02 +2.064010e-02
  328.00     0.00 +2.228978e-01 -1.165749e-01 -4.320773e-02 +1.935391e-02
  329.00     0.00 +1.695770e-01 -1.046132e-01 -3.933553e-02 +1.753061e-02
  330.00     0.00 +1.102537e-01 -9.157541e-02 -3.507559e-02 +1.509074e-02
  331.00     0.00 +4.499391e-02 -7.752045e-02 -3.050538e-02 +1.197843e-02
  332.00     0.00 -2.607409e-02 -6.250887e-02 -2.570680e-02 +8.162995e-03
  333.00     0.00 -1.027570e-01 -4.659717e-02 -2.076339e-02 +3.639586e-03
  334.00     0.00 -1.847937e-01 -2.983234e-02 -1.575746e-02 -1.571130e-03
  335.00     0.00 -2.718536e-01 -1.224682e-02 -1.076742e-02 -7.424172e-03
  336.00     0.00 -3.635360e-01 +6.145957e-03 -5.865261e-03 -1.385228e-02
  337.00     0.00 -4.593706e-01 +2.535506e-02 -1.114405e-03 -2.076869e-02
  338.00     0.00 -5.588194e-01 +4.541452e-02 +3.432109e-03 -2.807044e-02
  339.00     0.00 -6.612792e-01 +6.638455e-02 +7.732965e-03 -3.564221e-02
  340.00     0.00 -7.660859e-01 +8.835131e-02 +1.175942e-02 -4.336039e-02
  341.00     0.00 -8.725200e-01 +1.114253e-01 +1.549563e-02 -5.109727e-02
  342.00     0.00 -9.798128e-01 +1.357383e-01 +1.893850e-02 -5.872525e-02
  343.00     0.00 -1.087154e+00 +1.614388e-01 +2.209699e-02 -6.612079e-02
  344.00     0.00 -1.193699e+00 +1.886861e-01 +2.499100e-02 -7.316808e-02
  345.00     0.00 -1.298582e+00 +2.176436e-01 +2.764985e-02 -7.976224e-02
  346.00     0.00 -1.400921e+00 +2.484706e-01 +3.011042e-02 -8.581200e-02
  347.00     0.00 -1.499832e+00 +2.813136e-01 +3.241505e-02 -9.124172e-02
  348.00     0.00 -1.594438e+00 +3.162973e-01 +3.460935e-02 -9.599279e-02
  349.00     0.00 -1.683881e+00 +3.535155e-01 +3.673981e-02 -1.000244e-01
  350.00     0.00 -1.767335e+00 +3.930217e-01 +3.885161e-02 -1.033134e-01
  351.00     0.00 -1.844013e+00 +4.348210e-01 +4.098643e-02 -1.058541e-01
  352.00     0.00 -1.913181e+00 +4.788620e-01 +4.318055e-02 -1.076567e-01
  353.00     0.00 -1.974169e+00 +5.250309e-01 +4.546318e-02 -1.087461e-01
  354.00     0.00 -2.026377e+00 +5.731459e-01 +4.785518e-02 -1.091597e-01
  355.00     0.00 -2.069286e+00 +6.229541e-01 +5.036808e-02 -1.089452e-01
  356.00     0.00 -2.102469e+00 +6.741302e-01 +5.300359e-02 -1.081582e-01
  357.00     0.00 -2.125590e+00 +7.262769e-01 +5.575348e-02 -1.068599e-01
  358.00     0.00 -2.138418e+00 +7.789273e-01 +5.859984e-02 -1.051146e-01
  359.00     0.00 -2.140825e+00 +8.315504e-01 +6.151579e-02 -1.029873e-01
    0.00     0.00 +2.132793e+00 -8.835573e-01 -6.446642e-02 +1.005421e-01
    1.00     0.00 +2.114413e+00 -9.343105e-01 -6.741008e-02 +9.784042e-02
    2.00     0.00 +2.085887e+00 -9.831346e-01 -7.029988e-02 +9.493934e-02
    3.00     0.00 +2.047523e+00 -1.029328e+00 -7.308529e-02 +9.189110e-02
    4.00     0.00 +1.999737e+00 -1.072178e+00 -7.571388e-02 +8.874231e-02
    5.00     0.00 +1.943044e+00 -1.110973e+00 -7.813297e-02 +8.553379e-02
    6.00     0.00 +1.878055e+00 -1.145020e+00 -8.029132e-02 +8.230071e-02
    7.00     0.00 +1.805469e+00 -1.173657e+00 -8.214053e-02 +7.907300e-02
    8.00     0.00 +1.726063e+00 -1.196272e+00 -8.363644e-02 +7.587598e-02
    9.00     0.00 +1.640683e+00 -1.212314e+00 -8.474011e-02 +7.273112e-02
   10.00     0.00 +1.550236e+00 -1.221310e+00 -8.541870e-02 +6.965693e-02
   11.00     0.00 +1.455675e+00 -1.222873e+00 -8.564594e-02 +6.666977e-02
   12.00     0.00 +1.357987e+00 -1.216716e+00 -8.540243e-02 +6.378465e-02
   13.00     0.00 +1.258180e+00 -1.202660e+00 -8.467560e-02 +6.101581e-02
   14.00     0.00 +1.157273e+00 -1.180640e+00 -8.345943e-02 +5.837720e-02
   15.00     0.00 +1.056279e+00 -1.150707e+00 -8.175402e-02 +5.588267e-02
   16.00     0.00 +9.561919e-01 -1.113033e+00 -7.956494e-02 +5.354591e-02
   17.00     0.00 +8.579740e-01 -1.067907e+00 -7.690252e-02 +5.138013e-02
   18.00     0.00 +7.625441e-01 -1.015734e+00 -7.378098e-02 +4.939752e-02
   19.00     0.00 +6.707647e-01 -9.570246e-01 -7.021769e-02 +4.760847e-02
   20.00     0.00 +5.834308e-01 -8.923906e-01 -6.623239e-02 +4.602062e-02
   21.00     0.00 +5.012605e-01 -8.225321e-01 -6.184650e-02 +4.463778e-02
   22.00     0.00 +4.248856e-01 -7.482255e-01 -5.708261e-02 +4.345886e-02
   23.00     0.00 +3.548451e-01 -6.703094e-01 -5.196407e-02 +4.247675e-02
   24.00     0.00 +2.915786e-01 -5.896689e-01 -4.651484e-02 +4.167737e-02
   25.00     0.00 +2.354227e-01 -5.072199e-01 -4.075943e-02 +4.103890e-02
   26.00     0.00 +1.866087e-01 -4.238919e-01 -3.472308e-02 +4.053122e-02
   27.00     0.00 +1.452617e-01 -3.406120e-01 -2.843208e-02 +4.011572e-02
   28.00     0.00 +1.114018e-01 -2.582878e-01 -2.191423e-02 +3.974543e-02
   29.00     0.00 +8.494718e-02 -1.777923e-01 -1.519935e-02 +3.936557e-02
   30.00     0.00 +6.571830e-02 -9.994941e-02 -8.319944e-03 +3.891451e-02
   31.00     0.00 +5.344425e-02 -2.552038e-02 -1.311705e-03 +3.832512e-02
   32.00     0.00 +4.777010e-02 +4.480726e-02 +5.785896e-03 +3.752652e-02
   33.00     0.00 +4.826566e-02 +1.104295e-01 +1.292921e-02 +3.644614e-02
   34.00     0.00 +5.443526e-02 +1.708330e-01 +2.007013e-02 +3.501208e-02
   35.00     0.00 +6.572829e-02 +2.256011e-01 +2.715602e-02 +3.315558e-02
   36.00     0.00 +8.155046e-02 +2.744160e-01 +3.412990e-02 +3.081376e-02
   37.00     0.00 +1.012753e-01 +3.170605e-01 +4.093080e-02 +2.793212e-02
   38.00     0.00 +1.242559e-01 +3.534159e-01 +4.749449e-02 +2.446714e-02
   39.00     0.00 +1.498362e-01 +3.834594e-01 +5.375439e-02 +2.038855e-02
   40.00     0.00 +1.773623e-01 +4.072584e-01 +5.964271e-02 +1.568130e-02
   41.00     0.00 +2.061932e-01 +4.249642e-01 +6.509188e-02 +1.034715e-02
   42.00     0.00 +2.357099e-01 +4.368033e-01 +7.003606e-02 +4.405706e-03
   43.00     0.00 +2.653250e-01 +4.430681e-01 +7.441284e-02 -2.105044e-03
   44.00     0.00 +2.944899e-01 +4.441073e-01 +7.816491e-02 -9.128823e-03
   45.00     0.00 +3.227011e-01 +4.403146e-01 +8.124177e-02 -1.659178e-02
   46.00     0.00 +3.495058e-01 +4.321183e-01 +8.360137e-02 -2.440383e-02
   47.00     0.00 +3.745056e-01 +4.199702e-01 +8.521154e-02 -3.246055e-02
   48.00     0.00 +3.973588e-01 +4.043356e-01 +8.605120e-02 -4.064572e-02
   49.00     0.00 +4.177819e-01 +3.856832e-01 +8.611135e-02 -4.883418e-02
   50.00     0.00 +4.355494e-01 +3.644761e-01 +8.539564e-02 -5.689523e-02
   51.00     0.00 +4.504927e-01 +3.411643e-01 +8.392065e-02 -6.469617e-02
   52.00     0.00 +4.624980e-01 +3.161777e-01 +8.171573e-02 -7.210608e-02
   53.00     0.00 +4.715031e-01 +2.899206e-01 +7.882240e-02 -7.899958e-02
   54.00     0.00 +4.774939e-01 +2.627676e-01 +7.529345e-02 -8.526048e-02
   55.00     0.00 +4.805000e-01 +2.350608e-01 +7.119159e-02 -9.078521e-02
   56.00     0.00 +4.805898e-01 +2.071083e-01 +6.658783e-02 -9.548591e-02
   57.00     0.00 +4.778659e-01 +1.791837e-01 +6.155950e-02 -9.929296e-02
   58.00     0.00 +4.724600e-01 +1.515269e-01 +5.618817e-02 -1.021571e-01
   59.00     0.00 +4.645279e-01 +1.243459e-01 +5.055736e-02 -1.040508e-01
   60.00     0.00 +4.542451e-01 +9.781915e-02 +4.475025e-02 -1.049688e-01
   61.00     0.00 +4.418017e-01 +7.209884e-02 +3.884739e-02 -1.049286e-01
   62.00     0.00 +4.273992e-01 +4.731411e-02 +3.292457e-02 -1.039692e-01
   63.00     0.00 +4.112463e-01 +2.357495e-02 +2.705089e-02 -1.021500e-01
   64.00     0.00 +3.935558e-01 +9.758279e-04 +2.128709e-02 -9.954884e-02
   65.00     0.00 +3.745421e-01 -2.040074e-02 +1.568428e-02 -9.625927e-02
   66.00     0.00 +3.544188e-01 -4.048096e-02 +1.028297e-02 -9.238760e-02
   67.00     0.00 +3.333969e-01 -5.919699e-02 +5.112604e-03 -8.804952e-02
   68.00     0.00 +3.116833e-01 -7.648474e-02 +1.915286e-04 -8.336646e-02
   69.00     0.00 +2.894797e-01 -9.228233e-02 -4.472651e-03 -7.846184e-02
   70.00     0.00 +2.669816e-01 -1.065292e-01 -8.882255e-03 -7.345743e-02
   71.00     0.00 +2.443774e-01 -1.191661e-01 -1.304836e-02 -6.846972e-02
   72.00     0.00 +2.218482e-01 -1.301352e-01 -1.698930e-02 -6.360671e-02
   73.00     0.00 +1.995666e-01 -1.393818e-01 -2.072892e-02 -5.896494e-02
   74.00     0.00 +1.776964e-01 -1.468557e-01 -2.429467e-02 -5.462712e-02
   75.00     0.00 +1.563918e-01 -1.525131e-01 -2.771560e-02 -5.066019e-02
   76.00     0.00 +1.357966e-01 -1.563197e-01 -3.102039e-02 -4.711404e-02
   77.00     0.00 +1.160434e-01 -1.582524e-01 -3.423545e-02 -4.402082e-02
   78.00     0.00 +9.725245e-02 -1.583027e-01 -3.738321e-02 -4.139484e-02
   79.00     0.00 +7.953094e-02 -1.564788e-01 -4.048072e-02 -3.923316e-02
   80.00     0.00 +6.297167e-02 -1.528078e-01 -4.353853e-02 -3.751665e-02
   81.00     0.00 +4.765217e-02 -1.473375e-01 -4.655997e-02 -3.621160e-02
   82.00     0.00 +3.363372e-02 -1.401379e-01 -4.954084e-02 -3.527172e-02
   83.00     0.00 +2.096060e-02 -1.313014e-01 -5.246956e-02 -3.464050e-02
   84.00     0.00 +9.659522e-03 -1.209433e-01 -5.532771e-02 -3.425378e-02
   85.00     0.00 -2.606802e-04 -1.092006e-01 -5.809100e-02 -3.404247e-02
   86.00     0.00 -8.808973e-03 -9.623043e-02 -6.073058e-02 -3.393524e-02
   87.00     0.00 -1.601170e-02 -8.220832e-02 -6.321465e-02 -3.386121e-02
   88.00     0.00 -2.191174e-02 -6.732482e-02 -6.551032e-02 -3.375239e-02
   89.00     0.00 -2.656721e-02 -5.178221e-02 -6.758561e-02 -3.354589e-02
   90.00     0.00 -3.004981e-02 -3.579053e-02 -6.941140e-02 -3.318584e-02
   91.00     0.00 -3.244269e-02 -1.956325e-02 -7.096345e-02 -3.262484e-02
   92.00     0.00 -3.383804e-02 -3.312735e-03 -7.222423e-02 -3.182514e-02
   93.00     0.00 -3.433433e-02 +1.275428e-02 -7.318443e-02 -3.075920e-02
   94.00     0.00 -3.403339e-02 +2.844118e-02 -7.384423e-02 -2.941002e-02
   95.00     0.00 -3.303738e-02 +4.356564e-02 -7.421415e-02 -2.777092e-02
   96.00     0.00 -3.144576e-02 +5.796341e-02 -7.431542e-02 -2.584499e-02
   97.00     0.00 -2.935235e-02 +7.149152e-02 -7.417990e-02 -2.364424e-02
   98.00     0.00 -2.684269e-02 +8.403080e-02 -7.384947e-02 -2.118846e-02
   99.00     0.00 -2.399168e-02 +9.548771e-02 -7.337495e-02 -1.850388e-02
  100.00     0.00 -2.086174e-02 +1.057953e-01 -7.281455e-02 -1.562169e-02
  101.00     0.00 -1.750144e-02 +1.149131e-01 -7.223193e-02 -1.257654e-02
  102.00     0.00 -1.394484e-02 +1.228267e-01 -7.169384e-02 -9.405032e-03
  103.00     0.00 -1.021143e-02 +1.295458e-01 -7.126766e-02 -6.144294e-03
  104.00     0.00 -6.306762e-03 +1.351023e-01 -7.101864e-02 -2.830676e-03
  105.00     0.00 -2.223780e-03 +1.395467e-01 -7.100716e-02 +5.013518e-04
  106.00     0.00 +2.055177e-03 +1.429451e-01 -7.128607e-02 +3.820099e-03
  107.00     0.00 +6.555834e-03 +1.453749e-01 -7.189821e-02 +7.097315e-03
  108.00     0.00 +1.130892e-02 +1.469209e-01 -7.287415e-02 +1.030861e-02
  109.00     0.00 +1.634673e-02 +1.476708e-01 -7.423049e-02 +1.343362e-02
  110.00     0.00 +2.169948e-02 +1.477111e-01 -7.596840e-02 +1.645598e-02
  111.00     0.00 +2.739150e-02 +1.471238e-01 -7.807295e-02 +1.936307e-02
  112.00     0.00 +3.343762e-02 +1.459820e-01 -8.051281e-02 +2.214560e-02
  113.00     0.00 +3.983969e-02 +1.443481e-01 -8.324072e-02 +2.479710e-02
  114.00     0.00 +4.658357e-02 +1.422710e-01 -8.619450e-02 +2.731332e-02
  115.00     0.00 +5.363667e-02 +1.397851e-01 -8.929864e-02 +2.969159e-02
  116.00     0.00 +6.094617e-02 +1.369098e-01 -9.246644e-02 +3.193023e-02
  117.00     0.00 +6.843811e-02 +1.336499e-01 -9.560266e-02 +3.402793e-02
  118.00     0.00 +7.601726e-02 +1.299968e-01 -9.860644e-02 +3.598335e-02
  119.00     0.00 +8.356809e-02 +1.259305e-01 -1.013746e-01 +3.779467e-02
  120.00     0.00 +9.095656e-02 +1.214228e-01 -1.038049e-01 +3.945947e-02
  121.00     0.00 +9.803294e-02 +1.164399e-01 -1.057997e-01 +4.097452e-02
  122.00     0.00 +1.046355e-01 +1.109472e-01 -1.072690e-01 +4.233592e-02
  123.00     0.00 +1.105947e-01 +1.049125e-01 -1.081336e-01 +4.353922e-02
  124.00     0.00 +1.157389e-01 +9.831101e-02 -1.083280e-01 +4.457968e-02
  125.00     0.00 +1.198990e-01 +9.112872e-02 -1.078024e-01 +4.545267e-02
  126.00     0.00 +1.229151e-01 +8.336667e-02 -1.065245e-01 +4.615403e-02
  127.00     0.00 +1.246420e-01 +7.504411e-02 -1.044805e-01 +4.668048e-02
  128.00     0.00 +1.249549e-01 +6.620111e-02 -1.016761e-01 +4.703001e-02
  129.00     0.00 +1.237550e-01 +5.690047e-02 -9.813562e-02 +4.720223e-02
  130.00     0.00 +1.209742e-01 +4.722854e-02 -9.390139e-02 +4.719855e-02
  131.00     0.00 +1.165794e-01 +3.729513e-02 -8.903243e-02 +4.702235e-02
  132.00     0.00 +1.105749e-01 +2.723231e-02 -8.360219e-02 +4.667896e-02
  133.00     0.00 +1.030051e-01 +1.719216e-02 -7.769611e-02 +4.617550e-02
  134.00     0.00 +9.395504e-02 +7.343445e-03 -7.140866e-02 +4.552060e-02
  135.00     0.00 +8.354956e-02 -2.132616e-03 -6.484016e-02 +4.472404e-02
  136.00     0.00 +7.195180e-02 -1.104741e-02 -5.809344e-02 +4.379615e-02
  137.00     0.00 +5.935994e-02 -1.921067e-02 -5.127048e-02 +4.274727e-02
  138.00     0.00 +4.600289e-02 -2.643665e-02 -4.446917e-02 +4.158711e-02
  139.00     0.00 +3.213483e-02 -3.255056e-02 -3.778029e-02 +4.032410e-02
  140.00     0.00 +1.802887e-02 -3.739503e-02 -3.128490e-02 +3.896480e-02
  141.00     0.00 +3.969907e-03 -4.083624e-02 -2.505208e-02 +3.751338e-02
  142.00     0.00 -9.752998e-03 -4.276968e-02 -1.913729e-02 +3.597125e-02
  143.00     0.00 -2.285453e-02 -4.312510e-02 -1.358128e-02 +3.433686e-02
  144.00     0.00 -3.506105e-02 -4.187052e-02 -8.409613e-03 +3.260563e-02
  145.00     0.00 -4.611825e-02 -3.901514e-02 -3.632827e-03 +3.077020e-02
  146.00     0.00 -5.579833e-02 -3.461096e-02 +7.527881e-04 +2.882081e-02
  147.00     0.00 -6.390640e-02 -2.875297e-02 +4.763854e-03 +2.674599e-02
  148.00     0.00 -7.028593e-02 -2.157790e-02 +8.428067e-03 +2.453338e-02
  149.00     0.00 -7.482307e-02 -1.326154e-02 +1.178195e-02 +2.217079e-02
  150.00     0.00 -7.744961e-02 -4.014621e-03 +1.486827e-02 +1.964737e-02
  151.00     0.00 -7.814463e-02 +5.922660e-03 +1.773331e-02 +1.695487e-02
  152.00     0.00 -7.693464e-02 +1.628720e-02 +2.042399e-02 +1.408896e-02
  153.00     0.00 -7.389231e-02 +2.680058e-02 +2.298511e-02 +1.105049e-02
  154.00     0.00 -6.913379e-02 +3.717734e-02 +2.545671e-02 +7.846625e-03
  155.00     0.00 -6.281478e-02 +4.713375e-02 +2.787176e-02 +4.491864e-03
  156.00     0.00 -5.512537e-02 +5.639670e-02 +3.025417e-02 +1.008751e-03
  157.00     0.00 -4.628404e-02 +6.471250e-02 +3.261730e-02 -2.571668e-03
  158.00     0.00 -3.653076e-02 +7.185511e-02 +3.496305e-02 -6.209761e-03
  159.00     0.00 -2.611978e-02 +7.763376e-02 +3.728139e-02 -9.857599e-03
  160.00     0.00 -1.531196e-02 +8.189942e-02 +3.955060e-02 -1.345967e-02
  161.00     0.00 -4.367333e-03 +8.454998e-02 +4.173798e-02 -1.695398e-02
  162.00     0.00 +6.462264e-03 +8.553405e-02 +4.380120e-02 -2.027359e-02
  163.00     0.00 +1.693989e-02 +8.485295e-02 +4.569006e-02 -2.334845e-02
  164.00     0.00 +2.684953e-02 +8.256105e-02 +4.734864e-02 -2.610761e-02
  165.00     0.00 +3.600122e-02 +7.876426e-02 +4.871785e-02 -2.848165e-02
  166.00     0.00 +4.423509e-02 +7.361678e-02 +4.973810e-02 -3.040523e-02
  167.00     0.00 +5.142419e-02 +6.731613e-02 +5.035208e-02 -3.181974e-02
  168.00     0.00 +5.747612e-02 +6.009664e-02 +5.050755e-02 -3.267589e-02
  169.00     0.00 +6.233345e-02 +5.222160e-02 +5.015991e-02 -3.293614e-02
  170.00     0.00 +6.597286e-02 +4.397439e-02 +4.927458e-02 -3.257689e-02
  171.00     0.00 +6.840318e-02 +3.564870e-02 +4.782896e-02 -3.159025e-02
  172.00     0.00 +6.966248e-02 +2.753842e-02 +4.581400e-02 -2.998542e-02
  173.00     0.00 +6.981425e-02 +1.992737e-02 +4.323522e-02 -2.778944e-02
  174.00     0.00 +6.894297e-02 +1.307930e-02 +4.011321e-02 -2.504744e-02
  175.00     0.00 +6.714922e-02 +7.228475e-03 +3.648348e-02 -2.182216e-02
  176.00     0.00 +6.454461e-02 +2.571280e-03 +3.239583e-02 -1.819284e-02
  177.00     0.00 +6.124662e-02 -7.409939e-04 +2.791308e-02 -1.425346e-02
  178.00     0.00 +5.737380e-02 -2.607789e-03 +2.310939e-02 -1.011039e-02
  179.00     0.00 +5.304120e-02 -2.983198e-03 +1.806804e-02 -5.879398e-03
  180.00     0.00 +4.835660e-02 -1.877978e-03 +1.287893e-02 -1.682298e-03
  180.00     3.00 -4.761630e-02 +1.787360e-03 -1.539207e-02 +1.778278e-03
  181.00     3.00 -4.285416e-02 -5.909347e-05 -9.993908e-03 -2.687932e-03
  182.00     3.00 -3.796507e-02 -3.201668e-03 -4.574777e-03 -6.942843e-03
  183.00     3.00 -3.301042e-02 -7.498450e-03 +7.726577e-04 -1.085399e-02
  184.00     3.00 -2.803398e-02 -1.276190e-02 +5.958984e-03 -1.429539e-02
  185.00     3.00 -2.306276e-02 -1.876524e-02 +1.090062e-02 -1.715192e-02
  186.00     3.00 -1.810891e-02 -2.525025e-02 +1.552214e-02 -1.932351e-02
  187.00     3.00 -1.317240e-02 -3.193624e-02 +1.975828e-02 -2.072896e-02
  188.00     3.00 -8.244342e-03 -3.852986e-02 +2.355554e-02 -2.130921e-02
  189.00     3.00 -3.310834e-03 -4.473545e-02 +2.687331e-02 -2.103000e-02
  190.00     3.00 +1.642927e-03 -5.026554e-02 +2.968462e-02 -1.988368e-02
  191.00     3.00 +6.628534e-03 -5.485116e-02 +3.197626e-02 -1.789025e-02
  192.00     3.00 +1.165044e-02 -5.825158e-02 +3.374853e-02 -1.509743e-02
  193.00     3.00 +1.670242e-02 -6.026317e-02 +3.501451e-02 -1.157978e-02
  194.00     3.00 +2.176468e-02 -6.072703e-02 +3.579890e-02 -7.436932e-03
  195.00     3.00 +2.680173e-02 -5.953517e-02 +3.613655e-02 -2.790933e-03
  196.00     3.00 +3.176116e-02 -5.663498e-02 +3.607070e-02 +2.217259e-03
  197.00     3.00 +3.657345e-02 -5.203184e-02 +3.565103e-02 +7.431932e-03
  198.00     3.00 +4.115283e-02 -4.578984e-02 +3.493164e-02 +1.268735e-02
  199.00     3.00 +4.539921e-02 -3.803040e-02 +3.396895e-02 +1.781290e-02
  200.00     3.00 +4.920104e-02 -2.892911e-02 +3.281978e-02 +2.263839e-02
  201.00     3.00 +5.243917e-02 -1.871061e-02 +3.153943e-02 +2.699952e-02
  202.00     3.00 +5.499141e-02 -7.641893e-03 +3.018013e-02 +3.074303e-02
  203.00     3.00 +5.673763e-02 +3.975850e-03 +2.878962e-02 +3.373165e-02
  204.00     3.00 +5.756528e-02 +1.581655e-02 +2.741020e-02 +3.584846e-02
  205.00     3.00 +5.737498e-02 +2.753937e-02 +2.607797e-02 +3.700062e-02
  206.00     3.00 +5.608603e-02 +3.879939e-02 +2.482249e-02 +3.712225e-02
  207.00     3.00 +5.364150e-02 +4.925832e-02 +2.366680e-02 +3.617649e-02
  208.00     3.00 +5.001272e-02 +5.859509e-02 +2.262767e-02 +3.415648e-02
  209.00     3.00 +4.520297e-02 +6.651580e-02 +2.171620e-02 +3.108542e-02
  210.00     3.00 +3.925005e-02 +7.276278e-02 +2.093859e-02 +2.701562e-02
  211.00     3.00 +3.222780e-02 +7.712242e-02 +2.029710e-02 +2.202649e-02
  212.00     3.00 +2.424624e-02 +7.943165e-02 +1.979108e-02 +1.622180e-02
  213.00     3.00 +1.545037e-02 +7.958260e-02 +1.941803e-02 +9.726013e-03
  214.00     3.00 +6.017666e-03 +7.752564e-02 +1.917461e-02 +2.680075e-03
  215.00     3.00 -3.845763e-03 +7.327044e-02 +1.905758e-02 -4.763312e-03
  216.00     3.00 -1.391021e-02 +6.688520e-02 +1.906450e-02 -1.244472e-02
  217.00     3.00 -2.392843e-02 +5.849405e-02 +1.919430e-02 -2.020316e-02